Title: *include sf.spice
Date: Wed Oct 11 20:10:01  2023
Plotname: Transient Analysis
Flags: real
No. Variables: 2
No. Points: 1129
Variables:
	0	time	time
	1	v(vout)	voltage
Values:
 0	0.000000000000000e+00
	3.396469342271729e-07

 1	1.000000000000000e-11
	3.177589997098483e-05

 2	2.000000000000000e-11
	6.342274844335421e-05

 3	4.000000000000000e-11
	1.277144264901753e-04

 4	8.000000000000001e-11
	2.615897135998589e-04

 5	1.600000000000000e-10
	5.667142047883866e-04

 6	3.200000000000000e-10
	1.590598140246396e-03

 7	5.841475823846220e-10
	2.158229492913281e-02

 8	9.082996029089263e-10
	1.508168414301537e-01

 9	1.234924394908266e-09
	4.226287248399316e-01

 10	1.888173978906947e-09
	1.153059503262188e+00

 11	2.000000000000000e-09
	1.287491529944844e+00

 12	2.071873252205396e-09
	1.356570333028404e+00

 13	2.215619756616187e-09
	1.472426746549614e+00

 14	2.503112765437771e-09
	1.612310358780050e+00

 15	3.078098783080937e-09
	1.732776817632699e+00

 16	3.857362448514761e-09
	1.780363053535641e+00

 17	4.857362448514761e-09
	1.795763269271960e+00

 18	5.857362448514760e-09
	1.798947339699695e+00

 19	6.857362448514760e-09
	1.799661361509745e+00

 20	7.857362448514760e-09
	1.799823675002485e+00

 21	8.857362448514761e-09
	1.799860816119922e+00

 22	9.857362448514762e-09
	1.799869456754945e+00

 23	1.085736244851476e-08
	1.799871603052259e+00

 24	1.185736244851476e-08
	1.799872257377662e+00

 25	1.285736244851476e-08
	1.799872561169837e+00

 26	1.385736244851476e-08
	1.799872787658114e+00

 27	1.485736244851476e-08
	1.799872987161599e+00

 28	1.585736244851477e-08
	1.799873183361623e+00

 29	1.685736244851476e-08
	1.799873369618492e+00

 30	1.785736244851476e-08
	1.799873556612492e+00

 31	1.885736244851476e-08
	1.799873734735808e+00

 32	1.985736244851476e-08
	1.799873913985781e+00

 33	2.085736244851476e-08
	1.799874084596638e+00

 34	2.185736244851476e-08
	1.799874256524088e+00

 35	2.285736244851476e-08
	1.799874419990918e+00

 36	2.385736244851476e-08
	1.799874584944864e+00

 37	2.485736244851476e-08
	1.799874741605176e+00

 38	2.585736244851476e-08
	1.799874899913640e+00

 39	2.685736244851475e-08
	1.799875050086635e+00

 40	2.785736244851475e-08
	1.799875202060351e+00

 41	2.885736244851475e-08
	1.799875346048566e+00

 42	2.985736244851476e-08
	1.799875491982134e+00

 43	3.085736244851476e-08
	1.799875630072467e+00

 44	3.185736244851476e-08
	1.799875770245309e+00

 45	3.285736244851476e-08
	1.799875902709919e+00

 46	3.385736244851476e-08
	1.799876037387159e+00

 47	3.485736244851477e-08
	1.799876164484339e+00

 48	3.585736244851477e-08
	1.799876293917631e+00

 49	3.685736244851477e-08
	1.799876415892587e+00

 50	3.785736244851477e-08
	1.799876540320884e+00

 51	3.885736244851478e-08
	1.799876657406488e+00

 52	3.985736244851478e-08
	1.799876777056757e+00

 53	4.085736244851478e-08
	1.799876889474239e+00

 54	4.185736244851478e-08
	1.799877004562136e+00

 55	4.285736244851479e-08
	1.799877112521732e+00

 56	4.385736244851479e-08
	1.799877223252232e+00

 57	4.485736244851479e-08
	1.799877326953796e+00

 58	4.585736244851479e-08
	1.799877433521778e+00

 59	4.685736244851480e-08
	1.799877533155352e+00

 60	4.785736244851480e-08
	1.799877635746153e+00

 61	4.885736244851480e-08
	1.799877731492497e+00

 62	4.985736244851480e-08
	1.799877830282429e+00

 63	5.085736244851480e-08
	1.799877922313527e+00

 64	5.185736244851481e-08
	1.799878017470365e+00

 65	5.200000000000000e-08
	1.799878028087766e+00

 66	5.208935421390579e-08
	1.798284170457565e+00

 67	5.226806264171736e-08
	1.795622419802813e+00

 68	5.258901288527660e-08
	1.793855270189726e+00

 69	5.323091337239508e-08
	1.791862242173562e+00

 70	5.393117092597674e-08
	1.789705566969050e+00

 71	5.400000000000000e-08
	1.789493597753966e+00

 72	5.410000000000000e-08
	1.789478289213041e+00

 73	5.430000000000000e-08
	1.789447598635393e+00

 74	5.470000000000000e-08
	1.789386231180476e+00

 75	5.550000000000000e-08
	1.789263550939871e+00

 76	5.650000000000000e-08
	1.789110301684817e+00

 77	5.750000000000001e-08
	1.788957163023378e+00

 78	5.850000000000001e-08
	1.788804132914547e+00

 79	5.950000000000001e-08
	1.788651209550429e+00

 80	6.050000000000001e-08
	1.788498390974271e+00

 81	6.150000000000000e-08
	1.788345675460388e+00

 82	6.250000000000000e-08
	1.788193061132313e+00

 83	6.349999999999999e-08
	1.788040546342703e+00

 84	6.449999999999999e-08
	1.787888129291604e+00

 85	6.549999999999998e-08
	1.787735808406344e+00

 86	6.649999999999998e-08
	1.787583581959911e+00

 87	6.749999999999998e-08
	1.787431448450817e+00

 88	6.849999999999997e-08
	1.787279406221596e+00

 89	6.949999999999997e-08
	1.787127453838643e+00

 90	7.049999999999996e-08
	1.786975589710812e+00

 91	7.149999999999996e-08
	1.786823812469236e+00

 92	7.249999999999995e-08
	1.786672120586031e+00

 93	7.349999999999995e-08
	1.786520512754085e+00

 94	7.449999999999995e-08
	1.786368987505863e+00

 95	7.549999999999994e-08
	1.786217543593174e+00

 96	7.649999999999994e-08
	1.786066179606071e+00

 97	7.749999999999993e-08
	1.785914894352582e+00

 98	7.849999999999993e-08
	1.785763686477721e+00

 99	7.949999999999992e-08
	1.785612554843177e+00

 100	8.049999999999992e-08
	1.785461498146421e+00

 101	8.149999999999992e-08
	1.785310515300365e+00

 102	8.249999999999991e-08
	1.785159605052561e+00

 103	8.349999999999991e-08
	1.785008766364826e+00

 104	8.449999999999990e-08
	1.784857998032530e+00

 105	8.549999999999990e-08
	1.784707299064186e+00

 106	8.649999999999989e-08
	1.784556668300832e+00

 107	8.749999999999989e-08
	1.784406104795578e+00

 108	8.849999999999989e-08
	1.784255607433079e+00

 109	8.949999999999988e-08
	1.784105175309043e+00

 110	9.049999999999988e-08
	1.783954807349791e+00

 111	9.149999999999987e-08
	1.783804502691725e+00

 112	9.249999999999987e-08
	1.783654260300977e+00

 113	9.349999999999986e-08
	1.783504079352829e+00

 114	9.449999999999986e-08
	1.783353958851450e+00

 115	9.549999999999986e-08
	1.783203898009275e+00

 116	9.649999999999985e-08
	1.783053895866832e+00

 117	9.749999999999985e-08
	1.782903951672062e+00

 118	9.849999999999984e-08
	1.782754064500236e+00

 119	9.949999999999984e-08
	1.782604233633240e+00

 120	1.000000000000000e-07
	1.782529339035495e+00

 121	1.001000000000000e-07
	1.782807017669513e+00

 122	1.003000000000000e-07
	1.783362287056831e+00

 123	1.007000000000000e-07
	1.784472832351455e+00

 124	1.015000000000000e-07
	1.786741480994218e+00

 125	1.020000000000000e-07
	1.794355277456933e+00

 126	1.021000000000000e-07
	1.794978383522118e+00

 127	1.023000000000000e-07
	1.796083011634910e+00

 128	1.027000000000000e-07
	1.797617710261467e+00

 129	1.035000000000000e-07
	1.799136193639800e+00

 130	1.045000000000000e-07
	1.799711672435853e+00

 131	1.055000000000000e-07
	1.799842497963632e+00

 132	1.065000000000000e-07
	1.799872337294413e+00

 133	1.075000000000000e-07
	1.799879170709478e+00

 134	1.085000000000000e-07
	1.799880766124597e+00

 135	1.095000000000000e-07
	1.799881157645069e+00

 136	1.105000000000000e-07
	1.799881273666346e+00

 137	1.115000000000000e-07
	1.799881326410093e+00

 138	1.125000000000000e-07
	1.799881364321557e+00

 139	1.135000000000000e-07
	1.799881398460265e+00

 140	1.145000000000000e-07
	1.799881431358252e+00

 141	1.155000000000000e-07
	1.799881463599351e+00

 142	1.165000000000000e-07
	1.799881495325381e+00

 143	1.174999999999999e-07
	1.799881526574571e+00

 144	1.184999999999999e-07
	1.799881557363954e+00

 145	1.195000000000000e-07
	1.799881587702979e+00

 146	1.204999999999999e-07
	1.799881617601812e+00

 147	1.214999999999999e-07
	1.799881647068043e+00

 148	1.224999999999999e-07
	1.799881676111126e+00

 149	1.234999999999999e-07
	1.799881704738207e+00

 150	1.244999999999999e-07
	1.799881732958365e+00

 151	1.254999999999999e-07
	1.799881760778392e+00

 152	1.264999999999999e-07
	1.799881788207020e+00

 153	1.274999999999999e-07
	1.799881815250709e+00

 154	1.284999999999999e-07
	1.799881841917866e+00

 155	1.294999999999999e-07
	1.799881868214629e+00

 156	1.304999999999999e-07
	1.799881894149095e+00

 157	1.314999999999999e-07
	1.799881919727096e+00

 158	1.324999999999999e-07
	1.799881944956428e+00

 159	1.334999999999999e-07
	1.799881969842635e+00

 160	1.344999999999999e-07
	1.799881994393227e+00

 161	1.354999999999999e-07
	1.799882018613469e+00

 162	1.364999999999999e-07
	1.799882042510602e+00

 163	1.374999999999999e-07
	1.799882066089621e+00

 164	1.384999999999999e-07
	1.799882089357507e+00

 165	1.394999999999999e-07
	1.799882112319004e+00

 166	1.404999999999999e-07
	1.799882134980842e+00

 167	1.414999999999999e-07
	1.799882157347522e+00

 168	1.424999999999999e-07
	1.799882179425538e+00

 169	1.434999999999998e-07
	1.799882201219158e+00

 170	1.444999999999998e-07
	1.799882222734648e+00

 171	1.454999999999998e-07
	1.799882243976056e+00

 172	1.464999999999998e-07
	1.799882264949429e+00

 173	1.474999999999998e-07
	1.799882285658605e+00

 174	1.484999999999998e-07
	1.799882306109422e+00

 175	1.494999999999998e-07
	1.799882326305514e+00

 176	1.504999999999998e-07
	1.799882346252522e+00

 177	1.514999999999998e-07
	1.799882365953887e+00

 178	1.520000000000000e-07
	1.799882375714290e+00

 179	1.521000000000000e-07
	1.798104620004980e+00

 180	1.523000000000000e-07
	1.795312680076063e+00

 181	1.527000000000000e-07
	1.793521650747737e+00

 182	1.535000000000000e-07
	1.791057759607209e+00

 183	1.540000000000000e-07
	1.789520490388312e+00

 184	1.540736988058450e-07
	1.789509610538260e+00

 185	1.542210964175350e-07
	1.789487760702513e+00

 186	1.545158916409150e-07
	1.789444062825234e+00

 187	1.551054820876749e-07
	1.789356674804694e+00

 188	1.561054820876749e-07
	1.789208479601206e+00

 189	1.571054820876749e-07
	1.789060313293757e+00

 190	1.581054820876749e-07
	1.788912175457874e+00

 191	1.591054820876749e-07
	1.788764065984383e+00

 192	1.601054820876749e-07
	1.788615984458068e+00

 193	1.611054820876749e-07
	1.788467930778766e+00

 194	1.621054820876749e-07
	1.788319904540142e+00

 195	1.631054820876749e-07
	1.788171905650680e+00

 196	1.641054820876749e-07
	1.788023933712567e+00

 197	1.651054820876749e-07
	1.787875988642582e+00

 198	1.661054820876749e-07
	1.787728070051089e+00

 199	1.671054820876749e-07
	1.787580177862822e+00

 200	1.681054820876749e-07
	1.787432311695997e+00

 201	1.691054820876749e-07
	1.787284471482985e+00

 202	1.701054820876748e-07
	1.787136656849533e+00

 203	1.711054820876748e-07
	1.786988867735342e+00

 204	1.721054820876748e-07
	1.786841103773389e+00

 205	1.731054820876748e-07
	1.786693364910408e+00

 206	1.741054820876748e-07
	1.786545650786323e+00

 207	1.751054820876748e-07
	1.786397961354618e+00

 208	1.761054820876748e-07
	1.786250296261886e+00

 209	1.771054820876748e-07
	1.786102655468090e+00

 210	1.781054820876748e-07
	1.785955038626227e+00

 211	1.791054820876748e-07
	1.785807445702483e+00

 212	1.801054820876748e-07
	1.785659876356006e+00

 213	1.811054820876748e-07
	1.785512330558956e+00

 214	1.821054820876748e-07
	1.785364807976391e+00

 215	1.831054820876748e-07
	1.785217308586210e+00

 216	1.841054820876748e-07
	1.785069832059147e+00

 217	1.851054820876748e-07
	1.784922378378612e+00

 218	1.861054820876748e-07
	1.784774947220793e+00

 219	1.871054820876748e-07
	1.784627538574396e+00

 220	1.881054820876748e-07
	1.784480152120854e+00

 221	1.891054820876748e-07
	1.784332787853957e+00

 222	1.901054820876748e-07
	1.784185445460175e+00

 223	1.911054820876748e-07
	1.784038124938186e+00

 224	1.921054820876748e-07
	1.783890825979307e+00

 225	1.931054820876747e-07
	1.783743548586912e+00

 226	1.941054820876747e-07
	1.783596292456973e+00

 227	1.951054820876747e-07
	1.783449057597377e+00

 228	1.961054820876747e-07
	1.783301843708578e+00

 229	1.971054820876747e-07
	1.783154650802802e+00

 230	1.981054820876747e-07
	1.783007478584809e+00

 231	1.991054820876747e-07
	1.782860327070994e+00

 232	2.000000000000000e-07
	1.782728714701164e+00

 233	2.001000000000000e-07
	1.783006658299870e+00

 234	2.003000000000000e-07
	1.783562456962195e+00

 235	2.007000000000000e-07
	1.784674056960362e+00

 236	2.015000000000000e-07
	1.786944759132228e+00

 237	2.020000000000000e-07
	1.794508999623145e+00

 238	2.021000000000000e-07
	1.795114836645069e+00

 239	2.023000000000000e-07
	1.796188915461664e+00

 240	2.027000000000000e-07
	1.797681406173206e+00

 241	2.035000000000000e-07
	1.799158405070611e+00

 242	2.045000000000000e-07
	1.799718259522566e+00

 243	2.055000000000000e-07
	1.799845529864357e+00

 244	2.065000000000000e-07
	1.799874541435417e+00

 245	2.075000000000000e-07
	1.799881167451255e+00

 246	2.085000000000000e-07
	1.799882696652324e+00

 247	2.095000000000000e-07
	1.799883054931679e+00

 248	2.105000000000000e-07
	1.799883145578496e+00

 249	2.115000000000000e-07
	1.799883175061984e+00

 250	2.125000000000000e-07
	1.799883190508054e+00

 251	2.135000000000000e-07
	1.799883202668945e+00

 252	2.145000000000000e-07
	1.799883214000133e+00

 253	2.155000000000000e-07
	1.799883225061827e+00

 254	2.165000000000000e-07
	1.799883235984240e+00

 255	2.175000000000000e-07
	1.799883246797058e+00

 256	2.185000000000000e-07
	1.799883257509415e+00

 257	2.194999999999999e-07
	1.799883268123331e+00

 258	2.204999999999999e-07
	1.799883278641579e+00

 259	2.214999999999999e-07
	1.799883289064689e+00

 260	2.224999999999999e-07
	1.799883299395053e+00

 261	2.234999999999999e-07
	1.799883309633068e+00

 262	2.244999999999999e-07
	1.799883319781056e+00

 263	2.254999999999999e-07
	1.799883329839360e+00

 264	2.264999999999999e-07
	1.799883339810251e+00

 265	2.274999999999999e-07
	1.799883349694018e+00

 266	2.284999999999999e-07
	1.799883359492884e+00

 267	2.294999999999999e-07
	1.799883369207094e+00

 268	2.304999999999999e-07
	1.799883378838820e+00

 269	2.314999999999999e-07
	1.799883388388264e+00

 270	2.324999999999999e-07
	1.799883397857553e+00

 271	2.334999999999999e-07
	1.799883407246841e+00

 272	2.344999999999999e-07
	1.799883416558214e+00

 273	2.354999999999999e-07
	1.799883425791787e+00

 274	2.364999999999999e-07
	1.799883434949604e+00

 275	2.374999999999999e-07
	1.799883444031738e+00

 276	2.384999999999999e-07
	1.799883453040191e+00

 277	2.394999999999999e-07
	1.799883461975001e+00

 278	2.404999999999999e-07
	1.799883470838133e+00

 279	2.414999999999999e-07
	1.799883479629584e+00

 280	2.425000000000000e-07
	1.799883488351285e+00

 281	2.435000000000000e-07
	1.799883497003198e+00

 282	2.445000000000000e-07
	1.799883505587217e+00

 283	2.455000000000000e-07
	1.799883514103271e+00

 284	2.465000000000000e-07
	1.799883522553221e+00

 285	2.475000000000001e-07
	1.799883530936963e+00

 286	2.485000000000001e-07
	1.799883539256326e+00

 287	2.495000000000001e-07
	1.799883547511175e+00

 288	2.505000000000001e-07
	1.799883555703307e+00

 289	2.515000000000002e-07
	1.799883563832558e+00

 290	2.520000000000000e-07
	1.799883567874376e+00

 291	2.521000000000000e-07
	1.798105890499515e+00

 292	2.523000000000001e-07
	1.795314182589892e+00

 293	2.527000000000000e-07
	1.793523749744790e+00

 294	2.535000000000000e-07
	1.791061041156267e+00

 295	2.540000000000000e-07
	1.789524506034204e+00

 296	2.540736988962555e-07
	1.789513734010305e+00

 297	2.542210966887663e-07
	1.789492099676635e+00

 298	2.545158922737881e-07
	1.789448831903278e+00

 299	2.551054834438315e-07
	1.789362300509904e+00

 300	2.561054834438315e-07
	1.789215547596763e+00

 301	2.571054834438315e-07
	1.789068810143779e+00

 302	2.581054834438316e-07
	1.788922087928973e+00

 303	2.591054834438316e-07
	1.788775381041721e+00

 304	2.601054834438316e-07
	1.788628689261499e+00

 305	2.611054834438316e-07
	1.788482012679065e+00

 306	2.621054834438316e-07
	1.788335351075304e+00

 307	2.631054834438317e-07
	1.788188704542306e+00

 308	2.641054834438317e-07
	1.788042072862323e+00

 309	2.651054834438317e-07
	1.787895456128732e+00

 310	2.661054834438317e-07
	1.787748854125106e+00

 311	2.671054834438318e-07
	1.787602266946070e+00

 312	2.681054834438318e-07
	1.787455694376477e+00

 313	2.691054834438318e-07
	1.787309136512159e+00

 314	2.701054834438318e-07
	1.787162593139211e+00

 315	2.711054834438318e-07
	1.787016064354629e+00

 316	2.721054834438319e-07
	1.786869549945711e+00

 317	2.731054834438319e-07
	1.786723050010585e+00

 318	2.741054834438319e-07
	1.786576564337714e+00

 319	2.751054834438319e-07
	1.786430093026319e+00

 320	2.761054834438320e-07
	1.786283635865994e+00

 321	2.771054834438320e-07
	1.786137192957020e+00

 322	2.781054834438320e-07
	1.785990764090088e+00

 323	2.791054834438320e-07
	1.785844349366502e+00

 324	2.801054834438320e-07
	1.785697948578018e+00

 325	2.811054834438321e-07
	1.785551561826936e+00

 326	2.821054834438321e-07
	1.785405188906043e+00

 327	2.831054834438321e-07
	1.785258829918604e+00

 328	2.841054834438321e-07
	1.785112484658408e+00

 329	2.851054834438322e-07
	1.784966153229651e+00

 330	2.861054834438322e-07
	1.784819835427097e+00

 331	2.871054834438322e-07
	1.784673531355849e+00

 332	2.881054834438322e-07
	1.784527240811616e+00

 333	2.891054834438322e-07
	1.784380963900378e+00

 334	2.901054834438323e-07
	1.784234700418761e+00

 335	2.911054834438323e-07
	1.784088450473598e+00

 336	2.921054834438323e-07
	1.783942213862409e+00

 337	2.931054834438323e-07
	1.783795990692852e+00

 338	2.941054834438324e-07
	1.783649780763313e+00

 339	2.951054834438324e-07
	1.783503584182254e+00

 340	2.961054834438324e-07
	1.783357400748905e+00

 341	2.971054834438324e-07
	1.783211230572506e+00

 342	2.981054834438324e-07
	1.783065073453109e+00

 343	2.991054834438325e-07
	1.782918929500707e+00

 344	3.000000000000000e-07
	1.782788212298088e+00

 345	3.001000000000000e-07
	1.783066255563538e+00

 346	3.003000000000001e-07
	1.783622253431860e+00

 347	3.007000000000000e-07
	1.784734251071619e+00

 348	3.015000000000000e-07
	1.787005733425453e+00

 349	3.020000000000000e-07
	1.794555192097999e+00

 350	3.021000000000000e-07
	1.795155859947109e+00

 351	3.023000000000001e-07
	1.796220793822426e+00

 352	3.027000000000000e-07
	1.797700647666259e+00

 353	3.035000000000000e-07
	1.799165224840478e+00

 354	3.045000000000001e-07
	1.799720401765414e+00

 355	3.055000000000001e-07
	1.799846609419163e+00

 356	3.065000000000001e-07
	1.799875375123469e+00

 357	3.075000000000001e-07
	1.799881940981744e+00

 358	3.085000000000001e-07
	1.799883452231834e+00

 359	3.095000000000002e-07
	1.799883802361353e+00

 360	3.105000000000002e-07
	1.799883887146047e+00

 361	3.115000000000002e-07
	1.799883911335294e+00

 362	3.125000000000002e-07
	1.799883921661859e+00

 363	3.135000000000003e-07
	1.799883928787605e+00

 364	3.145000000000003e-07
	1.799883935146622e+00

 365	3.155000000000003e-07
	1.799883941293531e+00

 366	3.165000000000003e-07
	1.799883947356513e+00

 367	3.175000000000003e-07
	1.799883953364108e+00

 368	3.185000000000004e-07
	1.799883959324458e+00

 369	3.195000000000004e-07
	1.799883965238702e+00

 370	3.205000000000004e-07
	1.799883971108716e+00

 371	3.215000000000004e-07
	1.799883976934191e+00

 372	3.225000000000005e-07
	1.799883982716659e+00

 373	3.235000000000005e-07
	1.799883988455717e+00

 374	3.245000000000005e-07
	1.799883994152855e+00

 375	3.255000000000005e-07
	1.799883999807652e+00

 376	3.265000000000005e-07
	1.799884005421578e+00

 377	3.275000000000006e-07
	1.799884010994190e+00

 378	3.285000000000006e-07
	1.799884016526942e+00

 379	3.295000000000006e-07
	1.799884022019373e+00

 380	3.305000000000006e-07
	1.799884027472919e+00

 381	3.315000000000007e-07
	1.799884032887102e+00

 382	3.325000000000007e-07
	1.799884038263341e+00

 383	3.335000000000007e-07
	1.799884043601141e+00

 384	3.345000000000007e-07
	1.799884048901906e+00

 385	3.355000000000007e-07
	1.799884054165124e+00

 386	3.365000000000008e-07
	1.799884059392183e+00

 387	3.375000000000008e-07
	1.799884064582561e+00

 388	3.385000000000008e-07
	1.799884069737625e+00

 389	3.395000000000008e-07
	1.799884074856838e+00

 390	3.405000000000009e-07
	1.799884079941557e+00

 391	3.415000000000009e-07
	1.799884084991230e+00

 392	3.425000000000009e-07
	1.799884090007200e+00

 393	3.435000000000009e-07
	1.799884094988898e+00

 394	3.445000000000009e-07
	1.799884099937659e+00

 395	3.455000000000010e-07
	1.799884104852900e+00

 396	3.465000000000010e-07
	1.799884109735941e+00

 397	3.475000000000010e-07
	1.799884114586187e+00

 398	3.485000000000010e-07
	1.799884119404947e+00

 399	3.495000000000011e-07
	1.799884124191615e+00

 400	3.505000000000011e-07
	1.799884128947488e+00

 401	3.515000000000011e-07
	1.799884133671946e+00

 402	3.520000000000000e-07
	1.799884136023025e+00

 403	3.521000000000000e-07
	1.798106496199110e+00

 404	3.523000000000001e-07
	1.795314899365777e+00

 405	3.527000000000000e-07
	1.793524752116045e+00

 406	3.535000000000000e-07
	1.791062610941520e+00

 407	3.540000000000000e-07
	1.789526428865833e+00

 408	3.540736989393489e-07
	1.789515708757592e+00

 409	3.542210968180466e-07
	1.789494178209712e+00

 410	3.545158925754421e-07
	1.789451117734732e+00

 411	3.551054840902330e-07
	1.789364999848878e+00

 412	3.561054840902331e-07
	1.789218945065818e+00

 413	3.571054840902331e-07
	1.789072901618168e+00

 414	3.581054840902331e-07
	1.788926869320241e+00

 415	3.591054840902331e-07
	1.788780848297187e+00

 416	3.601054840902331e-07
	1.788634838363753e+00

 417	3.611054840902332e-07
	1.788488839645468e+00

 418	3.621054840902332e-07
	1.788342851957507e+00

 419	3.631054840902332e-07
	1.788196875425767e+00

 420	3.641054840902332e-07
	1.788050909865839e+00

 421	3.651054840902332e-07
	1.787904955403981e+00

 422	3.661054840902333e-07
	1.787759011856193e+00

 423	3.671054840902333e-07
	1.787613079349085e+00

 424	3.681054840902333e-07
	1.787467157699061e+00

 425	3.691054840902333e-07
	1.787321247033074e+00

 426	3.701054840902334e-07
	1.787175347167921e+00

 427	3.711054840902334e-07
	1.787029458230894e+00

 428	3.721054840902334e-07
	1.786883580039176e+00

 429	3.731054840902334e-07
	1.786737712720385e+00

 430	3.741054840902334e-07
	1.786591856092087e+00

 431	3.751054840902335e-07
	1.786446010282220e+00

 432	3.761054840902335e-07
	1.786300175108723e+00

 433	3.771054840902335e-07
	1.786154350699850e+00

 434	3.781054840902335e-07
	1.786008536873905e+00

 435	3.791054840902336e-07
	1.785862733759451e+00

 436	3.801054840902336e-07
	1.785716941175151e+00

 437	3.811054840902336e-07
	1.785571159249868e+00

 438	3.821054840902336e-07
	1.785425387802619e+00

 439	3.831054840902336e-07
	1.785279626962563e+00

 440	3.841054840902337e-07
	1.785133876549063e+00

 441	3.851054840902337e-07
	1.784988136691567e+00

 442	3.861054840902337e-07
	1.784842407209780e+00

 443	3.871054840902337e-07
	1.784696688233433e+00

 444	3.881054840902338e-07
	1.784550979582563e+00

 445	3.891054840902338e-07
	1.784405281387182e+00

 446	3.901054840902338e-07
	1.784259593467653e+00

 447	3.911054840902338e-07
	1.784113915954262e+00

 448	3.921054840902338e-07
	1.783968248667697e+00

 449	3.931054840902339e-07
	1.783822591738508e+00

 450	3.941054840902339e-07
	1.783676944987702e+00

 451	3.951054840902339e-07
	1.783531308546090e+00

 452	3.961054840902339e-07
	1.783385682234994e+00

 453	3.971054840902340e-07
	1.783240066185479e+00

 454	3.981054840902340e-07
	1.783094460219173e+00

 455	3.991054840902340e-07
	1.782948864467396e+00

 456	4.000000000000000e-07
	1.782818635248609e+00

 457	4.001000000000000e-07
	1.783096732907308e+00

 458	4.003000000000001e-07
	1.783652839514559e+00

 459	4.007000000000000e-07
	1.784765054343388e+00

 460	4.015000000000000e-07
	1.787036963785221e+00

 461	4.020000000000000e-07
	1.794578865364797e+00

 462	4.021000000000000e-07
	1.795176887458189e+00

 463	4.023000000000000e-07
	1.796237140549027e+00

 464	4.027000000000000e-07
	1.797710525966987e+00

 465	4.035000000000000e-07
	1.799168744665513e+00

 466	4.045000000000001e-07
	1.799721527551001e+00

 467	4.055000000000001e-07
	1.799847191769639e+00

 468	4.065000000000001e-07
	1.799875832193880e+00

 469	4.075000000000001e-07
	1.799882367824960e+00

 470	4.085000000000001e-07
	1.799883870436930e+00

 471	4.095000000000002e-07
	1.799884216928263e+00

 472	4.105000000000002e-07
	1.799884299229319e+00

 473	4.115000000000002e-07
	1.799884321209625e+00

 474	4.125000000000002e-07
	1.799884329401107e+00

 475	4.135000000000003e-07
	1.799884334419734e+00

 476	4.145000000000003e-07
	1.799884338688999e+00

 477	4.155000000000003e-07
	1.799884342761004e+00

 478	4.165000000000003e-07
	1.799884346763222e+00

 479	4.175000000000003e-07
	1.799884350723930e+00

 480	4.185000000000004e-07
	1.799884354651081e+00

 481	4.195000000000004e-07
	1.799884358545675e+00

 482	4.205000000000004e-07
	1.799884362409430e+00

 483	4.215000000000004e-07
	1.799884366241909e+00

 484	4.225000000000005e-07
	1.799884370044489e+00

 485	4.235000000000005e-07
	1.799884373816643e+00

 486	4.245000000000005e-07
	1.799884377559719e+00

 487	4.255000000000005e-07
	1.799884381273169e+00

 488	4.265000000000005e-07
	1.799884384958325e+00

 489	4.275000000000006e-07
	1.799884388614627e+00

 490	4.285000000000006e-07
	1.799884392243390e+00

 491	4.295000000000006e-07
	1.799884395844041e+00

 492	4.305000000000006e-07
	1.799884399417883e+00

 493	4.315000000000007e-07
	1.799884402964327e+00

 494	4.325000000000007e-07
	1.799884406484664e+00

 495	4.335000000000007e-07
	1.799884409978292e+00

 496	4.345000000000007e-07
	1.799884413446488e+00

 497	4.355000000000007e-07
	1.799884416888641e+00

 498	4.365000000000008e-07
	1.799884420306016e+00

 499	4.375000000000008e-07
	1.799884423697989e+00

 500	4.385000000000008e-07
	1.799884427065813e+00

 501	4.395000000000008e-07
	1.799884430408853e+00

 502	4.405000000000009e-07
	1.799884433728351e+00

 503	4.415000000000009e-07
	1.799884437023661e+00

 504	4.425000000000009e-07
	1.799884440296014e+00

 505	4.435000000000009e-07
	1.799884443544755e+00

 506	4.445000000000009e-07
	1.799884446771105e+00

 507	4.455000000000010e-07
	1.799884449974396e+00

 508	4.465000000000010e-07
	1.799884453155842e+00

 509	4.475000000000010e-07
	1.799884456314766e+00

 510	4.485000000000010e-07
	1.799884459452370e+00

 511	4.495000000000011e-07
	1.799884462567970e+00

 512	4.505000000000011e-07
	1.799884465662759e+00

 513	4.515000000000011e-07
	1.799884468736043e+00

 514	4.520000000000000e-07
	1.799884470265219e+00

 515	4.521000000000000e-07
	1.798106852569178e+00

 516	4.523000000000000e-07
	1.795315321166117e+00

 517	4.527000000000000e-07
	1.793525342154364e+00

 518	4.535000000000000e-07
	1.791063535432824e+00

 519	4.540000000000000e-07
	1.789527561589713e+00

 520	4.540736989647021e-07
	1.789516872112050e+00

 521	4.542210968941064e-07
	1.789495402802927e+00

 522	4.545158927529150e-07
	1.789452464670925e+00

 523	4.551054844705321e-07
	1.789366590934052e+00

 524	4.561054844705321e-07
	1.789220948668876e+00

 525	4.571054844705321e-07
	1.789075315696887e+00

 526	4.581054844705321e-07
	1.788929691844355e+00

 527	4.591054844705322e-07
	1.788784077248289e+00

 528	4.601054844705322e-07
	1.788638471735195e+00

 529	4.611054844705322e-07
	1.788492875442261e+00

 530	4.621054844705322e-07
	1.788347288196224e+00

 531	4.631054844705323e-07
	1.788201710134448e+00

 532	4.641054844705323e-07
	1.788056141083900e+00

 533	4.651054844705323e-07
	1.787910581182115e+00

 534	4.661054844705323e-07
	1.787765030256284e+00

 535	4.671054844705323e-07
	1.787619488444112e+00

 536	4.681054844705324e-07
	1.787473955573011e+00

 537	4.691054844705324e-07
	1.787328431780852e+00

 538	4.701054844705324e-07
	1.787182916895267e+00

 539	4.711054844705324e-07
	1.787037411054289e+00

 540	4.721054844705325e-07
	1.786891914085766e+00

 541	4.731054844705325e-07
	1.786746426127890e+00

 542	4.741054844705325e-07
	1.786600947008721e+00

 543	4.751054844705325e-07
	1.786455476866610e+00

 544	4.761054844705325e-07
	1.786310015529826e+00

 545	4.771054844705326e-07
	1.786164563136873e+00

 546	4.781054844705325e-07
	1.786019119516227e+00

 547	4.791054844705325e-07
	1.785873684806545e+00

 548	4.801054844705325e-07
	1.785728258836505e+00

 549	4.811054844705324e-07
	1.785582841744914e+00

 550	4.821054844705324e-07
	1.785437433360653e+00

 551	4.831054844705324e-07
	1.785292033822672e+00

 552	4.841054844705323e-07
	1.785146642960052e+00

 553	4.851054844705323e-07
	1.785001260911887e+00

 554	4.861054844705323e-07
	1.784855887507453e+00

 555	4.871054844705323e-07
	1.784710522885986e+00

 556	4.881054844705322e-07
	1.784565166876955e+00

 557	4.891054844705322e-07
	1.784419819619736e+00

 558	4.901054844705322e-07
	1.784274480943988e+00

 559	4.911054844705321e-07
	1.784129150989222e+00

 560	4.921054844705321e-07
	1.783983829585288e+00

 561	4.931054844705321e-07
	1.783838516871829e+00

 562	4.941054844705320e-07
	1.783693212678882e+00

 563	4.951054844705320e-07
	1.783547917146223e+00

 564	4.961054844705320e-07
	1.783402630104072e+00

 565	4.971054844705319e-07
	1.783257351692335e+00

 566	4.981054844705319e-07
	1.783112081741415e+00

 567	4.991054844705319e-07
	1.782966820391342e+00

 568	5.000000000000001e-07
	1.782836888995053e+00

 569	5.001000000000001e-07
	1.783115019860722e+00

 570	5.003000000000001e-07
	1.783671192856470e+00

 571	5.007000000000001e-07
	1.784783540307540e+00

 572	5.015000000000001e-07
	1.787055710700046e+00

 573	5.020000000000001e-07
	1.794593078389213e+00

 574	5.021000000000001e-07
	1.795189512634709e+00

 575	5.023000000000002e-07
	1.796246956520629e+00

 576	5.027000000000002e-07
	1.797716459742057e+00

 577	5.035000000000001e-07
	1.799170862117441e+00

 578	5.045000000000001e-07
	1.799722208133700e+00

 579	5.055000000000001e-07
	1.799847546268595e+00

 580	5.065000000000000e-07
	1.799876111600105e+00

 581	5.075000000000000e-07
	1.799882629190213e+00

 582	5.085000000000000e-07
	1.799884126717177e+00

 583	5.094999999999999e-07
	1.799884471121881e+00

 584	5.104999999999999e-07
	1.799884552026707e+00

 585	5.114999999999999e-07
	1.799884572773156e+00

 586	5.124999999999999e-07